
#(C) 2020 by FIZ Karlsruhe - Leibniz Institute for Information Infrastructure.  All rights reserved.
data_75164-ICSD
_database_code_ICSD 75164
_audit_creation_date 1995-10-17
_chemical_name_common 'Tetralithium titanium oxide'
_chemical_formula_structural 'Li4 Ti O4'
_chemical_formula_sum 'Li4 O4 Ti1'
_chemical_name_structure_type Li4PbO4
_exptl_crystal_density_diffrn 2.57
_citation_title

;
Crystal structure refinement of Li4TiO4 containing tetrahedrally coordinated
Ti(4+) and tetragonally packed oxide ions
;
loop_
_citation_id
_citation_journal_full
_citation_year
_citation_journal_volume
_citation_page_first
_citation_page_last
_citation_journal_id_ASTM
primary 'Journal of Solid State Chemistry' 1994 112 70 72 JSSCBI
loop_
_citation_author_citation_id
_citation_author_name
primary 'Gunawardane, R.P.'
primary 'Fletcher, J.G.'
primary 'Dissanayake, M.A.K.L.'
primary 'Howie, R.A.'
primary 'West, A.R.'
_cell_length_a 7.9116(8)
_cell_length_b 7.4328(8)
_cell_length_c 6.1368(6)
_cell_angle_alpha 90.
_cell_angle_beta 90.
_cell_angle_gamma 90.
_cell_volume 360.88
_cell_formula_units_Z 4
_space_group_name_H-M_alt 'C m c m'
_space_group_IT_number 63
loop_
_space_group_symop_id
_space_group_symop_operation_xyz
1 '-x, y, -z+1/2'
2 '-x, -y, z+1/2'
3 '-x, y, z'
4 '-x, -y, -z'
5 'x, -y, z+1/2'
6 'x, y, -z+1/2'
7 'x, -y, -z'
8 'x, y, z'
9 '-x+1/2, y+1/2, -z+1/2'
10 '-x+1/2, -y+1/2, z+1/2'
11 '-x+1/2, y+1/2, z'
12 '-x+1/2, -y+1/2, -z'
13 'x+1/2, -y+1/2, z+1/2'
14 'x+1/2, y+1/2, -z+1/2'
15 'x+1/2, -y+1/2, -z'
16 'x+1/2, y+1/2, z'
loop_
_atom_type_symbol
_atom_type_oxidation_number
Li1+ 1
Ti4+ 4
O2- -2
loop_
_atom_site_label
_atom_site_type_symbol
_atom_site_symmetry_multiplicity
_atom_site_Wyckoff_symbol
_atom_site_fract_x
_atom_site_fract_y
_atom_site_fract_z
_atom_site_U_iso_or_equiv
_atom_site_occupancy
Li1 Li1+ 8 e 0.165(7) 0 0 0.01 1.
Li2 Li1+ 8 g 0.333(6) 0.243(6) 0.25 0.01 1.
Ti1 Ti4+ 4 c 0 0.342(1) 0.25 0.019 1.
O1 O2- 8 f 0 0.192(3) 0.005(2) 0.022 1.
O2 O2- 8 g 0.192(2) 0.471(2) 0.25 0.02 1.
#End of TTdata_75164-ICSD